<?xml version="1.0"?>
<VTKFile type="PolyData" version="0.1" byte_order="LittleEndian">
  <PolyData>
    <Piece NumberOfPoints="8" NumberOfVerts="8" NumberOfLines="0" NumberOfStrips="0" NumberOfPolys="0">
      <PointData Scalars="thickness">
        <DataArray type="Float32" Name="thickness" format="ascii">11.200000 28.360000 98.560000 59.130000 76.940000 66.900000 18.050000 41.900000</DataArray>
      </PointData>
      <Points>
        <DataArray type="Float32" NumberOfComponents="3" format="ascii">495558.870000 5404339.030000 0.000000 497464.390000 5404959.310000 0.000000 497621.500000 5404458.170000 0.000000 497754.000000 5403998.030000 0.000000 498083.150000 5404638.490000 0.000000 498378.440000 5403689.890000 0.000000 498782.260000 5404074.310000 0.000000 498695.790000 5404381.000000 0.000000</DataArray>
      </Points>
      <Verts>
        <DataArray type="Int32" Name="connectivity" format="ascii">0 1 2 3 4 5 6 7</DataArray>
        <DataArray type="Int32" Name="offsets" format="ascii">1 2 3 4 5 6 7 8</DataArray>
      </Verts>
    </Piece>
  </PolyData>
</VTKFile>
