<?xml version="1.0"?>
<VTKFile type="PolyData" version="0.1" byte_order="LittleEndian">
  <PolyData>
    <Piece NumberOfPoints="28" NumberOfVerts="28" NumberOfLines="0" NumberOfStrips="0" NumberOfPolys="0">
      <PointData Scalars="thickness">
        <DataArray type="Float32" Name="thickness" format="ascii">69.500000 137.320000 80.650000 42.300000 57.870000 40.550000 72.750000 56.400000 68.900000 55.200000 86.450000 6.240000 47.850000 73.300000 39.300000 85.680000 9.010000 47.610000 6.300000 23.820000 5.650000 39.300000 55.040000 89.500000 86.950000 43.690000 39.390000 8.500000</DataArray>
      </PointData>
      <Points>
        <DataArray type="Float32" NumberOfComponents="3" format="ascii">495394.960000 5404813.130000 0.000000 495558.870000 5404339.030000 0.000000 495724.710000 5403865.270000 0.000000 495869.640000 5404980.280000 0.000000 496022.310000 5404502.090000 0.000000 496166.570000 5404015.050000 0.000000 496497.740000 5404659.170000 0.000000 496655.460000 5404184.680000 0.000000 496814.180000 5403710.730000 0.000000 496675.160000 5405766.010000 0.000000 497136.010000 5404331.360000 0.000000 497291.620000 5403856.010000 0.000000 497934.730000 5405121.270000 0.000000 498232.970000 5404152.170000 0.000000 498879.630000 5405400.980000 0.000000 497464.390000 5404959.310000 0.000000 497621.500000 5404458.170000 0.000000 497754.000000 5403998.030000 0.000000 498083.150000 5404638.490000 0.000000 498378.440000 5403689.890000 0.000000 499027.939100 5404918.190000 0.000000 498782.260000 5404074.310000 0.000000 498046.920000 5404790.110000 0.000000 498616.540000 5404670.770000 0.000000 496173.390000 5405602.250000 0.000000 496830.860000 5405285.470000 0.000000 497760.290000 5405592.220000 0.000000 28.000000 0.000000 0.000000</DataArray>
      </Points>
      <Verts>
        <DataArray type="Int32" Name="connectivity" format="ascii">0 1 2 3 4 5 6 7 8 9 10 11 12 13 14 15 16 17 18 19 20 21 22 23 24 25 26 27</DataArray>
        <DataArray type="Int32" Name="offsets" format="ascii">1 2 3 4 5 6 7 8 9 10 11 12 13 14 15 16 17 18 19 20 21 22 23 24 25 26 27 28</DataArray>
      </Verts>
    </Piece>
  </PolyData>
</VTKFile>
