<?xml version="1.0"?>
<VTKFile type="PolyData" version="0.1" byte_order="LittleEndian">
  <PolyData>
    <Piece NumberOfPoints="28" NumberOfVerts="28" NumberOfLines="0" NumberOfStrips="0" NumberOfPolys="0">
      <PointData Scalars="thickness">
        <DataArray type="Float32" Name="thickness" format="ascii">37.000000 8.150000 11.400000 18.100000 80.460000 8.450000 26.350000 0.550000 116.600000 63.400000 54.800000 126.450000 20.410000 29.850000 80.610000 20.590000 12.400000 128.010000 43.980000 157.800000 68.700000 104.910000 28.500000 13.450000 40.710000 29.660000 36.610000 6.700000</DataArray>
      </PointData>
      <Points>
        <DataArray type="Float32" NumberOfComponents="3" format="ascii">495394.960000 5404813.130000 0.000000 495558.870000 5404339.030000 0.000000 495724.710000 5403865.270000 0.000000 495869.640000 5404980.280000 0.000000 496022.310000 5404502.090000 0.000000 496166.570000 5404015.050000 0.000000 496497.740000 5404659.170000 0.000000 496655.460000 5404184.680000 0.000000 496814.180000 5403710.730000 0.000000 496675.160000 5405766.010000 0.000000 497136.010000 5404331.360000 0.000000 497291.620000 5403856.010000 0.000000 497934.730000 5405121.270000 0.000000 498232.970000 5404152.170000 0.000000 497464.390000 5404959.310000 0.000000 497621.500000 5404458.170000 0.000000 497754.000000 5403998.030000 0.000000 498083.150000 5404638.490000 0.000000 498378.440000 5403689.890000 0.000000 499027.939100 5404918.190000 0.000000 498782.260000 5404074.310000 0.000000 498695.790000 5404381.000000 0.000000 498046.920000 5404790.110000 0.000000 498616.540000 5404670.770000 0.000000 496173.390000 5405602.250000 0.000000 496830.860000 5405285.470000 0.000000 497760.290000 5405592.220000 0.000000 28.000000 0.000000 0.000000</DataArray>
      </Points>
      <Verts>
        <DataArray type="Int32" Name="connectivity" format="ascii">0 1 2 3 4 5 6 7 8 9 10 11 12 13 14 15 16 17 18 19 20 21 22 23 24 25 26 27</DataArray>
        <DataArray type="Int32" Name="offsets" format="ascii">1 2 3 4 5 6 7 8 9 10 11 12 13 14 15 16 17 18 19 20 21 22 23 24 25 26 27 28</DataArray>
      </Verts>
    </Piece>
  </PolyData>
</VTKFile>
