<?xml version="1.0"?>
<VTKFile type="PolyData" version="0.1" byte_order="LittleEndian">
  <PolyData>
    <Piece NumberOfPoints="29" NumberOfVerts="29" NumberOfLines="0" NumberOfStrips="0" NumberOfPolys="0">
      <PointData Scalars="thickness">
        <DataArray type="Float32" Name="thickness" format="ascii">41.970000 33.450000 135.020000 70.200000 66.850000 150.000000 136.950000 161.920000 81.050000 35.200000 43.400000 95.880000 23.150000 181.250000 423.200000 156.910000 212.230000 125.550000 103.360000 87.980000 197.500000 83.350000 8.070000 112.060000 58.900000 47.520000 29.730000 54.000000 12.300000</DataArray>
      </PointData>
      <Points>
        <DataArray type="Float32" NumberOfComponents="3" format="ascii">495394.960000 5404813.130000 0.000000 495558.870000 5404339.030000 0.000000 495724.710000 5403865.270000 0.000000 495869.640000 5404980.280000 0.000000 496022.310000 5404502.090000 0.000000 496166.570000 5404015.050000 0.000000 496497.740000 5404659.170000 0.000000 496655.460000 5404184.680000 0.000000 496814.180000 5403710.730000 0.000000 496675.160000 5405766.010000 0.000000 497136.010000 5404331.360000 0.000000 497291.620000 5403856.010000 0.000000 497934.730000 5405121.270000 0.000000 498232.970000 5404152.170000 0.000000 498879.630000 5405400.980000 0.000000 497464.390000 5404959.310000 0.000000 497621.500000 5404458.170000 0.000000 497754.000000 5403998.030000 0.000000 498083.150000 5404638.490000 0.000000 498378.440000 5403689.890000 0.000000 499027.939100 5404918.190000 0.000000 498782.260000 5404074.310000 0.000000 498695.790000 5404381.000000 0.000000 498046.920000 5404790.110000 0.000000 498616.540000 5404670.770000 0.000000 496173.390000 5405602.250000 0.000000 496830.860000 5405285.470000 0.000000 497760.290000 5405592.220000 0.000000 28.000000 0.000000 0.000000</DataArray>
      </Points>
      <Verts>
        <DataArray type="Int32" Name="connectivity" format="ascii">0 1 2 3 4 5 6 7 8 9 10 11 12 13 14 15 16 17 18 19 20 21 22 23 24 25 26 27 28</DataArray>
        <DataArray type="Int32" Name="offsets" format="ascii">1 2 3 4 5 6 7 8 9 10 11 12 13 14 15 16 17 18 19 20 21 22 23 24 25 26 27 28 29</DataArray>
      </Verts>
    </Piece>
  </PolyData>
</VTKFile>
