<?xml version="1.0"?>
<VTKFile type="PolyData" version="0.1" byte_order="LittleEndian">
  <PolyData>
    <Piece NumberOfPoints="14" NumberOfVerts="14" NumberOfLines="0" NumberOfStrips="0" NumberOfPolys="0">
      <PointData Scalars="thickness">
        <DataArray type="Float32" Name="thickness" format="ascii">5.100000 8.800000 6.450000 2.200000 11.030000 1.800000 0.800000 2.800000 1.100000 4.440000 6.410000 6.180000 21.430000 64.520000</DataArray>
      </PointData>
      <Points>
        <DataArray type="Float32" NumberOfComponents="3" format="ascii">496675.160000 5405766.010000 0.000000 497934.730000 5405121.270000 0.000000 498879.630000 5405400.980000 0.000000 497754.000000 5403998.030000 0.000000 498083.150000 5404638.490000 0.000000 498378.440000 5403689.890000 0.000000 499027.939100 5404918.190000 0.000000 498782.260000 5404074.310000 0.000000 498695.790000 5404381.000000 0.000000 498046.920000 5404790.110000 0.000000 498616.540000 5404670.770000 0.000000 496173.390000 5405602.250000 0.000000 496830.860000 5405285.470000 0.000000 497760.290000 5405592.220000 0.000000</DataArray>
      </Points>
      <Verts>
        <DataArray type="Int32" Name="connectivity" format="ascii">0 1 2 3 4 5 6 7 8 9 10 11 12 13</DataArray>
        <DataArray type="Int32" Name="offsets" format="ascii">1 2 3 4 5 6 7 8 9 10 11 12 13 14</DataArray>
      </Verts>
    </Piece>
  </PolyData>
</VTKFile>
