<?xml version="1.0"?>
<VTKFile type="PolyData" version="0.1" byte_order="LittleEndian">
  <PolyData>
    <Piece NumberOfPoints="13" NumberOfVerts="13" NumberOfLines="0" NumberOfStrips="0" NumberOfPolys="0">
      <PointData Scalars="thickness">
        <DataArray type="Float32" Name="thickness" format="ascii">0.700000 0.500000 0.500000 7.500000 112.200000 209.560000 34.150000 122.710000 197.150000 143.170000 83.500000 127.050000 7.900000</DataArray>
      </PointData>
      <Points>
        <DataArray type="Float32" NumberOfComponents="3" format="ascii">495558.870000 5404339.030000 0.000000 496497.740000 5404659.170000 0.000000 496655.460000 5404184.680000 0.000000 496675.160000 5405766.010000 0.000000 497136.010000 5404331.360000 0.000000 497934.730000 5405121.270000 0.000000 498695.790000 5404381.000000 0.000000 498046.920000 5404790.110000 0.000000 498616.540000 5404670.770000 0.000000 496173.390000 5405602.250000 0.000000 496830.860000 5405285.470000 0.000000 497760.290000 5405592.220000 0.000000 29.000000 0.000000 0.000000</DataArray>
      </Points>
      <Verts>
        <DataArray type="Int32" Name="connectivity" format="ascii">0 1 2 3 4 5 6 7 8 9 10 11 12</DataArray>
        <DataArray type="Int32" Name="offsets" format="ascii">1 2 3 4 5 6 7 8 9 10 11 12 13</DataArray>
      </Verts>
    </Piece>
  </PolyData>
</VTKFile>
