<?xml version="1.0"?>
<VTKFile type="PolyData" version="0.1" byte_order="LittleEndian">
  <PolyData>
    <Piece NumberOfPoints="10" NumberOfVerts="10" NumberOfLines="0" NumberOfStrips="0" NumberOfPolys="0">
      <PointData Scalars="thickness">
        <DataArray type="Float32" Name="thickness" format="ascii">20.550000 44.700000 14.450000 28.350000 9.050000 103.750000 67.650000 38.920000 115.290000 81.300000</DataArray>
      </PointData>
      <Points>
        <DataArray type="Float32" NumberOfComponents="3" format="ascii">496814.180000 5403710.730000 0.000000 496675.160000 5405766.010000 0.000000 498378.440000 5403689.890000 0.000000 499027.939100 5404918.190000 0.000000 498782.260000 5404074.310000 0.000000 498046.920000 5404790.110000 0.000000 498616.540000 5404670.770000 0.000000 496173.390000 5405602.250000 0.000000 496830.860000 5405285.470000 0.000000 497760.290000 5405592.220000 0.000000</DataArray>
      </Points>
      <Verts>
        <DataArray type="Int32" Name="connectivity" format="ascii">0 1 2 3 4 5 6 7 8 9</DataArray>
        <DataArray type="Int32" Name="offsets" format="ascii">1 2 3 4 5 6 7 8 9 10</DataArray>
      </Verts>
    </Piece>
  </PolyData>
</VTKFile>
